<?xml version="1.0" encoding="UTF-8"?>

<!-- generated on 2023-11-29 19:45:15 by Eclipse SUMO sumo Version v1_19_0+0260-f25044b3d77
<configuration xmlns:xsi="http://www.w3.org/2001/XMLSchema-instance" xsi:noNamespaceSchemaLocation="http://sumo.dlr.de/xsd/sumoConfiguration.xsd">

    <input>
        <net-file value="sumo_scenario/lust.net.xml"/>
        <route-files value="sumo_scenario/routes.xml"/>
        <additional-files value="sumo_scenario/vtypes.add.xml"/>
    </input>

    <output>
        <emission-output value="output-files/outputs/emissions.xml"/>
        <battery-output value="sumo_scenario/Battery.out.xml"/>
        <battery-output.precision value="4"/>
        <fcd-output value="output-files/outputs/vehicle-trajectories.xml"/>
        <summary-output value="sumo_scenario/dua.actuated.summary.xml"/>
        <tripinfo-output value="sumo_scenario/dua.actuated.tripinfo.xml"/>
    </output>

    <time>
        <begin value="0"/>
        <step-length value="1"/>
    </time>

    <processing>
        <ignore-junction-blocker value="20"/>
        <time-to-teleport value="600"/>
        <max-depart-delay value="600"/>
    </processing>

    <routing>
        <routing-algorithm value="dijkstra"/>
        <device.rerouting.probability value="0.70"/>
        <device.rerouting.period value="300"/>
        <device.rerouting.pre-period value="300"/>
    </routing>

    <report>
        <verbose value="true"/>
        <log value="sumo_scenario/dua.actuated.log"/>
    </report>

    <battery>
        <device.battery.probability value="1"/>
    </battery>

</configuration>
-->

<emission-export xmlns:xsi="http://www.w3.org/2001/XMLSchema-instance" xsi:noNamespaceSchemaLocation="http://sumo.dlr.de/xsd/emission_file.xsd">
    <timestep time="0.00">
        <vehicle id="1" eclass="Energy/default" CO2="0.00" CO="0.00" HC="0.00" NOx="0.00" PMx="0.00" fuel="0.00" electricity="0.08" noise="56.33" route="!1" type="1" waiting="0.00" lane="-31606#0_0" pos="190.56" speed="1.00" angle="130.87" x="6640.42" y="6027.95"/>
        <vehicle id="10" eclass="Energy/default" CO2="0.00" CO="0.00" HC="0.00" NOx="0.00" PMx="0.00" fuel="0.00" electricity="0.08" noise="56.33" route="!10!var#1" type="1" waiting="0.00" lane="-31272#0_0" pos="56.28" speed="1.00" angle="275.15" x="7265.30" y="5512.27"/>
        <vehicle id="2" eclass="Energy/default" CO2="0.00" CO="0.00" HC="0.00" NOx="0.00" PMx="0.00" fuel="0.00" electricity="0.08" noise="56.33" route="!2" type="1" waiting="0.00" lane="--32406#3_0" pos="104.84" speed="1.00" angle="252.53" x="5558.61" y="7680.35"/>
        <vehicle id="3" eclass="Energy/default" CO2="0.00" CO="0.00" HC="0.00" NOx="0.00" PMx="0.00" fuel="0.00" electricity="0.08" noise="56.33" route="!3!var#1" type="1" waiting="0.00" lane="--31490_0" pos="120.10" speed="1.00" angle="346.05" x="7995.89" y="5371.43"/>
        <vehicle id="4" eclass="Energy/default" CO2="0.00" CO="0.00" HC="0.00" NOx="0.00" PMx="0.00" fuel="0.00" electricity="0.08" noise="56.33" route="!4" type="1" waiting="0.00" lane="--32468#2_0" pos="93.26" speed="1.00" angle="24.10" x="7680.71" y="6100.06"/>
        <vehicle id="5" eclass="Energy/default" CO2="0.00" CO="0.00" HC="0.00" NOx="0.00" PMx="0.00" fuel="0.00" electricity="0.08" noise="56.33" route="!5" type="1" waiting="0.00" lane="-32340#7_0" pos="102.06" speed="1.00" angle="124.30" x="10572.43" y="9679.25"/>
        <vehicle id="6" eclass="Energy/default" CO2="0.00" CO="0.00" HC="0.00" NOx="0.00" PMx="0.00" fuel="0.00" electricity="0.08" noise="56.33" route="!6!var#1" type="1" waiting="0.00" lane="--30988#2_0" pos="119.04" speed="1.00" angle="2.44" x="7238.19" y="8160.72"/>
        <vehicle id="7" eclass="Energy/default" CO2="0.00" CO="0.00" HC="0.00" NOx="0.00" PMx="0.00" fuel="0.00" electricity="0.08" noise="56.33" route="!7" type="1" waiting="0.00" lane="--32244_0" pos="57.71" speed="1.00" angle="19.72" x="7631.01" y="9268.22"/>
        <vehicle id="8" eclass="Energy/default" CO2="0.00" CO="0.00" HC="0.00" NOx="0.00" PMx="0.00" fuel="0.00" electricity="0.08" noise="56.33" route="!8!var#1" type="1" waiting="0.00" lane="--32326#1_0" pos="2.53" speed="1.00" angle="259.00" x="5108.09" y="6694.82"/>
        <vehicle id="9" eclass="Energy/default" CO2="0.00" CO="0.00" HC="0.00" NOx="0.00" PMx="0.00" fuel="0.00" electricity="0.08" noise="56.33" route="!9!var#1" type="1" waiting="0.00" lane="-32694_0" pos="26.82" speed="1.00" angle="62.15" x="3377.75" y="7744.31"/>
    </timestep>
    <timestep time="1.00">
        <vehicle id="1" eclass="Energy/default" CO2="0.00" CO="0.00" HC="0.00" NOx="0.00" PMx="0.00" fuel="0.00" electricity="0.91" noise="61.12" route="!1" type="1" waiting="0.00" lane="-31606#0_0" pos="192.56" speed="2.00" angle="130.87" x="6641.94" y="6026.64"/>
        <vehicle id="10" eclass="Energy/default" CO2="0.00" CO="0.00" HC="0.00" NOx="0.00" PMx="0.00" fuel="0.00" electricity="0.91" noise="61.12" route="!10!var#1" type="1" waiting="0.00" lane="-31272#0_0" pos="58.28" speed="2.00" angle="275.15" x="7263.35" y="5512.44"/>
        <vehicle id="2" eclass="Energy/default" CO2="0.00" CO="0.00" HC="0.00" NOx="0.00" PMx="0.00" fuel="0.00" electricity="0.91" noise="61.12" route="!2" type="1" waiting="0.00" lane="--32406#3_0" pos="106.84" speed="2.00" angle="252.53" x="5556.70" y="7679.75"/>
        <vehicle id="3" eclass="Energy/default" CO2="0.00" CO="0.00" HC="0.00" NOx="0.00" PMx="0.00" fuel="0.00" electricity="0.91" noise="61.12" route="!3!var#1" type="1" waiting="0.00" lane="--31490_0" pos="122.10" speed="2.00" angle="346.05" x="7995.41" y="5373.37"/>
        <vehicle id="4" eclass="Energy/default" CO2="0.00" CO="0.00" HC="0.00" NOx="0.00" PMx="0.00" fuel="0.00" electricity="0.91" noise="61.12" route="!4" type="1" waiting="0.00" lane="--32468#2_1" pos="95.26" speed="2.00" angle="24.09" x="7678.49" y="6103.21"/>
        <vehicle id="5" eclass="Energy/default" CO2="0.00" CO="0.00" HC="0.00" NOx="0.00" PMx="0.00" fuel="0.00" electricity="0.91" noise="61.12" route="!5" type="1" waiting="0.00" lane="-32340#7_0" pos="104.06" speed="2.00" angle="124.30" x="10574.08" y="9678.13"/>
        <vehicle id="6" eclass="Energy/default" CO2="0.00" CO="0.00" HC="0.00" NOx="0.00" PMx="0.00" fuel="0.00" electricity="0.91" noise="61.12" route="!6!var#1" type="1" waiting="0.00" lane="--30988#2_0" pos="121.04" speed="2.00" angle="2.44" x="7238.28" y="8162.74"/>
        <vehicle id="7" eclass="Energy/default" CO2="0.00" CO="0.00" HC="0.00" NOx="0.00" PMx="0.00" fuel="0.00" electricity="0.91" noise="61.12" route="!7" type="1" waiting="0.00" lane="--32244_0" pos="59.71" speed="2.00" angle="19.72" x="7631.69" y="9270.10"/>
        <vehicle id="8" eclass="Energy/default" CO2="0.00" CO="0.00" HC="0.00" NOx="0.00" PMx="0.00" fuel="0.00" electricity="0.91" noise="61.12" route="!8!var#1" type="1" waiting="0.00" lane="--32326#1_0" pos="4.53" speed="2.00" angle="264.82" x="5106.09" y="6694.66"/>
        <vehicle id="9" eclass="Energy/default" CO2="0.00" CO="0.00" HC="0.00" NOx="0.00" PMx="0.00" fuel="0.00" electricity="0.91" noise="61.12" route="!9!var#1" type="1" waiting="0.00" lane="-32694_0" pos="28.82" speed="2.00" angle="62.15" x="3379.52" y="7745.24"/>
    </timestep>
    <timestep time="2.00">
        <vehicle id="1" eclass="Energy/default" CO2="0.00" CO="0.00" HC="0.00" NOx="0.00" PMx="0.00" fuel="0.00" electricity="1.48" noise="61.54" route="!1" type="1" waiting="0.00" lane="-31606#0_0" pos="195.56" speed="3.00" angle="130.87" x="6644.20" y="6024.68"/>
        <vehicle id="10" eclass="Energy/default" CO2="0.00" CO="0.00" HC="0.00" NOx="0.00" PMx="0.00" fuel="0.00" electricity="1.48" noise="61.54" route="!10!var#1" type="1" waiting="0.00" lane="-31272#0_0" pos="61.28" speed="3.00" angle="275.15" x="7260.43" y="5512.71"/>
        <vehicle id="2" eclass="Energy/default" CO2="0.00" CO="0.00" HC="0.00" NOx="0.00" PMx="0.00" fuel="0.00" electricity="1.48" noise="61.54" route="!2" type="1" waiting="0.00" lane="--32406#3_0" pos="109.84" speed="3.00" angle="252.53" x="5553.84" y="7678.85"/>
        <vehicle id="3" eclass="Energy/default" CO2="0.00" CO="0.00" HC="0.00" NOx="0.00" PMx="0.00" fuel="0.00" electricity="1.48" noise="61.54" route="!3!var#1" type="1" waiting="0.00" lane="--31490_0" pos="125.10" speed="3.00" angle="346.05" x="7994.69" y="5376.28"/>
        <vehicle id="4" eclass="Energy/default" CO2="0.00" CO="0.00" HC="0.00" NOx="0.00" PMx="0.00" fuel="0.00" electricity="1.48" noise="61.54" route="!4" type="1" waiting="0.00" lane="--32468#2_1" pos="98.26" speed="3.00" angle="24.09" x="7679.73" y="6105.96"/>
        <vehicle id="5" eclass="Energy/default" CO2="0.00" CO="0.00" HC="0.00" NOx="0.00" PMx="0.00" fuel="0.00" electricity="1.49" noise="61.54" route="!5" type="1" waiting="0.00" lane="-32340#7_0" pos="107.06" speed="3.00" angle="125.44" x="10576.49" y="9676.36"/>
        <vehicle id="6" eclass="Energy/default" CO2="0.00" CO="0.00" HC="0.00" NOx="0.00" PMx="0.00" fuel="0.00" electricity="1.48" noise="61.54" route="!6!var#1" type="1" waiting="0.00" lane="--30988#2_0" pos="124.04" speed="3.00" angle="2.44" x="7238.40" y="8165.76"/>
        <vehicle id="7" eclass="Energy/default" CO2="0.00" CO="0.00" HC="0.00" NOx="0.00" PMx="0.00" fuel="0.00" electricity="1.48" noise="61.54" route="!7" type="1" waiting="0.00" lane="--32244_0" pos="62.71" speed="3.00" angle="19.72" x="7632.70" y="9272.92"/>
        <vehicle id="8" eclass="Energy/default" CO2="0.00" CO="0.00" HC="0.00" NOx="0.00" PMx="0.00" fuel="0.00" electricity="1.49" noise="61.54" route="!8!var#1" type="1" waiting="0.00" lane="--32326#1_0" pos="7.53" speed="3.00" angle="265.31" x="5103.10" y="6694.41"/>
        <vehicle id="9" eclass="Energy/default" CO2="0.00" CO="0.00" HC="0.00" NOx="0.00" PMx="0.00" fuel="0.00" electricity="1.48" noise="61.54" route="!9!var#1" type="1" waiting="0.00" lane="-32694_0" pos="31.82" speed="3.00" angle="62.15" x="3382.17" y="7746.65"/>
    </timestep>
    <timestep time="3.00">
        <vehicle id="1" eclass="Energy/default" CO2="0.00" CO="0.00" HC="0.00" NOx="0.00" PMx="0.00" fuel="0.00" electricity="2.06" noise="61.99" route="!1" type="1" waiting="0.00" lane="-31606#0_0" pos="199.56" speed="4.00" angle="130.87" x="6647.23" y="6022.06"/>
        <vehicle id="10" eclass="Energy/default" CO2="0.00" CO="0.00" HC="0.00" NOx="0.00" PMx="0.00" fuel="0.00" electricity="2.06" noise="61.99" route="!10!var#1" type="1" waiting="0.00" lane="-31272#0_0" pos="65.28" speed="4.00" angle="275.15" x="7256.53" y="5513.06"/>
        <vehicle id="2" eclass="Energy/default" CO2="0.00" CO="0.00" HC="0.00" NOx="0.00" PMx="0.00" fuel="0.00" electricity="2.07" noise="61.99" route="!2" type="1" waiting="0.00" lane=":-7214_0_0" pos="2.19" speed="4.00" angle="253.09" x="5550.01" y="7677.70"/>
        <vehicle id="3" eclass="Energy/default" CO2="0.00" CO="0.00" HC="0.00" NOx="0.00" PMx="0.00" fuel="0.00" electricity="2.06" noise="61.99" route="!3!var#1" type="1" waiting="0.00" lane="--31490_0" pos="129.10" speed="4.00" angle="346.05" x="7993.72" y="5380.16"/>
        <vehicle id="4" eclass="Energy/default" CO2="0.00" CO="0.00" HC="0.00" NOx="0.00" PMx="0.00" fuel="0.00" electricity="2.06" noise="61.99" route="!4" type="1" waiting="0.00" lane="--32468#2_1" pos="102.26" speed="4.00" angle="24.09" x="7681.37" y="6109.63"/>
        <vehicle id="5" eclass="Energy/default" CO2="0.00" CO="0.00" HC="0.00" NOx="0.00" PMx="0.00" fuel="0.00" electricity="2.16" noise="61.99" route="!5" type="1" waiting="0.00" lane="-32340#7_0" pos="111.06" speed="4.00" angle="132.79" x="10579.38" y="9673.62"/>
        <vehicle id="6" eclass="Energy/default" CO2="0.00" CO="0.00" HC="0.00" NOx="0.00" PMx="0.00" fuel="0.00" electricity="2.06" noise="61.99" route="!6!var#1" type="1" waiting="0.00" lane="--30988#2_1" pos="128.04" speed="4.00" angle="2.44" x="7235.12" y="8166.28"/>
        <vehicle id="7" eclass="Energy/default" CO2="0.00" CO="0.00" HC="0.00" NOx="0.00" PMx="0.00" fuel="0.00" electricity="2.06" noise="61.99" route="!7" type="1" waiting="0.00" lane="--32244_0" pos="66.71" speed="4.00" angle="19.72" x="7634.05" y="9276.69"/>
        <vehicle id="8" eclass="Energy/default" CO2="0.00" CO="0.00" HC="0.00" NOx="0.00" PMx="0.00" fuel="0.00" electricity="2.06" noise="61.99" route="!8!var#1" type="1" waiting="0.00" lane="--32326#1_0" pos="11.53" speed="4.00" angle="265.31" x="5099.12" y="6694.09"/>
        <vehicle id="9" eclass="Energy/default" CO2="0.00" CO="0.00" HC="0.00" NOx="0.00" PMx="0.00" fuel="0.00" electricity="2.06" noise="61.99" route="!9!var#1" type="1" waiting="0.00" lane="-32694_0" pos="35.82" speed="4.00" angle="62.15" x="3385.71" y="7748.51"/>
    </timestep>
    <timestep time="4.00">
        <vehicle id="1" eclass="Energy/default" CO2="0.00" CO="0.00" HC="0.00" NOx="0.00" PMx="0.00" fuel="0.00" electricity="2.64" noise="62.47" route="!1" type="1" waiting="0.00" lane="-31606#0_0" pos="204.56" speed="5.00" angle="130.87" x="6651.01" y="6018.79"/>
        <vehicle id="10" eclass="Energy/default" CO2="0.00" CO="0.00" HC="0.00" NOx="0.00" PMx="0.00" fuel="0.00" electricity="2.64" noise="62.47" route="!10!var#1" type="1" waiting="0.00" lane="-31272#0_0" pos="70.28" speed="5.00" angle="275.15" x="7251.66" y="5513.50"/>
        <vehicle id="2" eclass="Energy/default" CO2="0.00" CO="0.00" HC="0.00" NOx="0.00" PMx="0.00" fuel="0.00" electricity="2.84" noise="62.47" route="!2" type="1" waiting="0.00" lane=":-7214_0_0" pos="7.19" speed="5.00" angle="262.03" x="5545.07" y="7677.01"/>
        <vehicle id="3" eclass="Energy/default" CO2="0.00" CO="0.00" HC="0.00" NOx="0.00" PMx="0.00" fuel="0.00" electricity="2.64" noise="62.47" route="!3!var#1" type="1" waiting="0.00" lane="--31490_0" pos="134.10" speed="5.00" angle="346.05" x="7992.52" y="5385.01"/>
        <vehicle id="4" eclass="Energy/default" CO2="0.00" CO="0.00" HC="0.00" NOx="0.00" PMx="0.00" fuel="0.00" electricity="-0.05" noise="57.04" route="!4" type="1" waiting="0.00" lane=":-21152_10_0" pos="1.04" speed="3.85" angle="22.43" x="7682.81" y="6113.21"/>
        <vehicle id="5" eclass="Energy/default" CO2="0.00" CO="0.00" HC="0.00" NOx="0.00" PMx="0.00" fuel="0.00" electricity="2.65" noise="62.47" route="!5" type="1" waiting="0.00" lane="-32340#7_0" pos="116.06" speed="5.00" angle="133.48" x="10583.00" y="9670.18"/>
        <vehicle id="6" eclass="Energy/default" CO2="0.00" CO="0.00" HC="0.00" NOx="0.00" PMx="0.00" fuel="0.00" electricity="2.64" noise="62.47" route="!6!var#1" type="1" waiting="0.00" lane="--30988#2_1" pos="133.04" speed="5.00" angle="2.44" x="7235.33" y="8171.22"/>
        <vehicle id="7" eclass="Energy/default" CO2="0.00" CO="0.00" HC="0.00" NOx="0.00" PMx="0.00" fuel="0.00" electricity="2.64" noise="62.47" route="!7" type="1" waiting="0.00" lane="--32244_0" pos="71.71" speed="5.00" angle="19.72" x="7635.74" y="9281.39"/>
        <vehicle id="8" eclass="Energy/default" CO2="0.00" CO="0.00" HC="0.00" NOx="0.00" PMx="0.00" fuel="0.00" electricity="2.64" noise="62.47" route="!8!var#1" type="1" waiting="0.00" lane="--32326#1_0" pos="16.53" speed="5.00" angle="265.31" x="5094.13" y="6693.68"/>
        <vehicle id="9" eclass="Energy/default" CO2="0.00" CO="0.00" HC="0.00" NOx="0.00" PMx="0.00" fuel="0.00" electricity="2.64" noise="62.47" route="!9!var#1" type="1" waiting="0.00" lane="-32694_0" pos="40.82" speed="5.00" angle="62.15" x="3390.13" y="7750.85"/>
    </timestep>
    <timestep time="5.00">
        <vehicle id="1" eclass="Energy/default" CO2="0.00" CO="0.00" HC="0.00" NOx="0.00" PMx="0.00" fuel="0.00" electricity="3.26" noise="62.97" route="!1" type="1" waiting="0.00" lane="-31606#0_0" pos="210.56" speed="6.00" angle="129.71" x="6655.61" y="6014.94"/>
        <vehicle id="10" eclass="Energy/default" CO2="0.00" CO="0.00" HC="0.00" NOx="0.00" PMx="0.00" fuel="0.00" electricity="3.23" noise="62.97" route="!10!var#1" type="1" waiting="0.00" lane=":-10518_0_0" pos="2.66" speed="6.00" angle="275.38" x="7245.80" y="5514.05"/>
        <vehicle id="2" eclass="Energy/default" CO2="0.00" CO="0.00" HC="0.00" NOx="0.00" PMx="0.00" fuel="0.00" electricity="3.34" noise="62.97" route="!2" type="1" waiting="0.00" lane="--32406#2_0" pos="4.47" speed="6.00" angle="265.63" x="5539.09" y="7676.56"/>
        <vehicle id="3" eclass="Energy/default" CO2="0.00" CO="0.00" HC="0.00" NOx="0.00" PMx="0.00" fuel="0.00" electricity="-1.35" noise="55.15" route="!3!var#1" type="1" waiting="0.00" lane="--31490_0" pos="138.40" speed="4.30" angle="346.05" x="7991.48" y="5389.19"/>
        <vehicle id="4" eclass="Energy/default" CO2="0.00" CO="0.00" HC="0.00" NOx="0.00" PMx="0.00" fuel="0.00" electricity="-1.44" noise="52.96" route="!4" type="1" waiting="0.00" lane=":-21152_10_0" pos="3.89" speed="2.85" angle="17.84" x="7683.59" y="6115.94"/>
        <vehicle id="5" eclass="Energy/default" CO2="0.00" CO="0.00" HC="0.00" NOx="0.00" PMx="0.00" fuel="0.00" electricity="3.22" noise="62.97" route="!5" type="1" waiting="0.00" lane="-32340#7_0" pos="122.06" speed="6.00" angle="133.48" x="10587.35" y="9666.06"/>
        <vehicle id="6" eclass="Energy/default" CO2="0.00" CO="0.00" HC="0.00" NOx="0.00" PMx="0.00" fuel="0.00" electricity="3.22" noise="62.97" route="!6!var#1" type="1" waiting="0.00" lane="--30988#2_1" pos="139.04" speed="6.00" angle="2.44" x="7235.59" y="8177.15"/>
        <vehicle id="7" eclass="Energy/default" CO2="0.00" CO="0.00" HC="0.00" NOx="0.00" PMx="0.00" fuel="0.00" electricity="3.26" noise="62.97" route="!7" type="1" waiting="0.00" lane="--32244_0" pos="77.71" speed="6.00" angle="21.01" x="7637.87" y="9287.00"/>
        <vehicle id="8" eclass="Energy/default" CO2="0.00" CO="0.00" HC="0.00" NOx="0.00" PMx="0.00" fuel="0.00" electricity="3.22" noise="62.97" route="!8!var#1" type="1" waiting="0.00" lane="--32326#1_0" pos="22.53" speed="6.00" angle="265.31" x="5088.15" y="6693.19"/>
        <vehicle id="9" eclass="Energy/default" CO2="0.00" CO="0.00" HC="0.00" NOx="0.00" PMx="0.00" fuel="0.00" electricity="3.22" noise="62.97" route="!9!var#1" type="1" waiting="0.00" lane="-32694_0" pos="46.82" speed="6.00" angle="62.15" x="3395.43" y="7753.65"/>
    </timestep>
    <timestep time="6.00">
        <vehicle id="1" eclass="Energy/default" CO2="0.00" CO="0.00" HC="0.00" NOx="0.00" PMx="0.00" fuel="0.00" electricity="4.05" noise="63.49" route="!1" type="1" waiting="0.00" lane="-31606#0_0" pos="217.56" speed="7.00" angle="124.29" x="6661.39" y="6011.00"/>
        <vehicle id="10" eclass="Energy/default" CO2="0.00" CO="0.00" HC="0.00" NOx="0.00" PMx="0.00" fuel="0.00" electricity="3.82" noise="63.49" route="!10!var#1" type="1" waiting="0.00" lane=":-10518_0_0" pos="9.66" speed="7.00" angle="275.59" x="7238.93" y="5514.72"/>
        <vehicle id="2" eclass="Energy/default" CO2="0.00" CO="0.00" HC="0.00" NOx="0.00" PMx="0.00" fuel="0.00" electricity="3.81" noise="63.49" route="!2" type="1" waiting="0.00" lane="--32406#2_0" pos="11.47" speed="7.00" angle="265.59" x="5532.11" y="7676.02"/>
        <vehicle id="3" eclass="Energy/default" CO2="0.00" CO="0.00" HC="0.00" NOx="0.00" PMx="0.00" fuel="0.00" electricity="-1.66" noise="53.26" route="!3!var#1" type="1" waiting="0.00" lane="--31490_0" pos="141.70" speed="3.30" angle="346.05" x="7990.68" y="5392.39"/>
        <vehicle id="4" eclass="Energy/default" CO2="0.00" CO="0.00" HC="0.00" NOx="0.00" PMx="0.00" fuel="0.00" electricity="2.18" noise="61.92" route="!4" type="1" waiting="0.00" lane=":-21152_16_0" pos="1.05" speed="3.85" angle="1.74" x="7683.42" y="6119.72"/>
        <vehicle id="5" eclass="Energy/default" CO2="0.00" CO="0.00" HC="0.00" NOx="0.00" PMx="0.00" fuel="0.00" electricity="3.81" noise="63.49" route="!5" type="1" waiting="0.00" lane="-32340#7_0" pos="129.06" speed="7.00" angle="133.48" x="10592.42" y="9661.26"/>
        <vehicle id="6" eclass="Energy/default" CO2="0.00" CO="0.00" HC="0.00" NOx="0.00" PMx="0.00" fuel="0.00" electricity="4.13" noise="63.49" route="!6!var#1" type="1" waiting="0.00" lane="--30988#2_1" pos="146.04" speed="7.00" angle="9.65" x="7236.65" y="8183.99"/>
        <vehicle id="7" eclass="Energy/default" CO2="0.00" CO="0.00" HC="0.00" NOx="0.00" PMx="0.00" fuel="0.00" electricity="3.84" noise="63.49" route="!7" type="1" waiting="0.00" lane="--32244_0" pos="84.71" speed="7.00" angle="21.60" x="7640.44" y="9293.51"/>
        <vehicle id="8" eclass="Energy/default" CO2="0.00" CO="0.00" HC="0.00" NOx="0.00" PMx="0.00" fuel="0.00" electricity="3.81" noise="63.49" route="!8!var#1" type="1" waiting="0.00" lane="--32326#1_0" pos="29.53" speed="7.00" angle="265.31" x="5081.17" y="6692.61"/>
        <vehicle id="9" eclass="Energy/default" CO2="0.00" CO="0.00" HC="0.00" NOx="0.00" PMx="0.00" fuel="0.00" electricity="3.81" noise="63.49" route="!9!var#1" type="1" waiting="0.00" lane="-32694_0" pos="53.82" speed="7.00" angle="62.15" x="3401.62" y="7756.92"/>
    </timestep>
    <timestep time="7.00">
        <vehicle id="1" eclass="Energy/default" CO2="0.00" CO="0.00" HC="0.00" NOx="0.00" PMx="0.00" fuel="0.00" electricity="4.41" noise="64.03" route="!1" type="1" waiting="0.00" lane="-31606#0_0" pos="225.56" speed="8.00" angle="124.29" x="6668.00" y="6006.49"/>
        <vehicle id="10" eclass="Energy/default" CO2="0.00" CO="0.00" HC="0.00" NOx="0.00" PMx="0.00" fuel="0.00" electricity="4.41" noise="64.03" route="!10!var#1" type="1" waiting="0.00" lane="-31272#1_0" pos="0.07" speed="8.00" angle="275.65" x="7231.08" y="5515.49"/>
        <vehicle id="2" eclass="Energy/default" CO2="0.00" CO="0.00" HC="0.00" NOx="0.00" PMx="0.00" fuel="0.00" electricity="4.41" noise="64.03" route="!2" type="1" waiting="0.00" lane="--32406#2_0" pos="19.47" speed="8.00" angle="265.59" x="5524.13" y="7675.40"/>
        <vehicle id="3" eclass="Energy/default" CO2="0.00" CO="0.00" HC="0.00" NOx="0.00" PMx="0.00" fuel="0.00" electricity="2.23" noise="62.13" route="!3!var#1" type="1" waiting="0.00" lane=":-19244_4_0" pos="0.30" speed="4.30" angle="345.83" x="7989.63" y="5396.56"/>
        <vehicle id="4" eclass="Energy/default" CO2="0.00" CO="0.00" HC="0.00" NOx="0.00" PMx="0.00" fuel="0.00" electricity="3.33" noise="62.39" route="!4" type="1" waiting="0.00" lane=":-21152_16_0" pos="5.90" speed="4.85" angle="324.74" x="7680.65" y="6123.52"/>
        <vehicle id="5" eclass="Energy/default" CO2="0.00" CO="0.00" HC="0.00" NOx="0.00" PMx="0.00" fuel="0.00" electricity="4.41" noise="64.03" route="!5" type="1" waiting="0.00" lane="-32340#7_0" pos="137.06" speed="8.00" angle="133.48" x="10598.21" y="9655.76"/>
        <vehicle id="6" eclass="Energy/default" CO2="0.00" CO="0.00" HC="0.00" NOx="0.00" PMx="0.00" fuel="0.00" electricity="4.41" noise="64.03" route="!6!var#1" type="1" waiting="0.00" lane="--30988#2_1" pos="154.04" speed="8.00" angle="9.65" x="7237.97" y="8191.80"/>
        <vehicle id="7" eclass="Energy/default" CO2="0.00" CO="0.00" HC="0.00" NOx="0.00" PMx="0.00" fuel="0.00" electricity="4.41" noise="64.03" route="!7" type="1" waiting="0.00" lane="--32244_0" pos="92.71" speed="8.00" angle="21.60" x="7643.39" y="9300.95"/>
        <vehicle id="8" eclass="Energy/default" CO2="0.00" CO="0.00" HC="0.00" NOx="0.00" PMx="0.00" fuel="0.00" electricity="4.41" noise="64.03" route="!8!var#1" type="1" waiting="0.00" lane="--32326#1_0" pos="37.53" speed="8.00" angle="265.31" x="5073.20" y="6691.96"/>
        <vehicle id="9" eclass="Energy/default" CO2="0.00" CO="0.00" HC="0.00" NOx="0.00" PMx="0.00" fuel="0.00" electricity="3.86" noise="63.44" route="!9!var#1" type="1" waiting="0.00" lane="-32694_0" pos="61.69" speed="7.87" angle="62.15" x="3408.58" y="7760.60"/>
    </timestep>
    <timestep time="8.00">
        <vehicle id="1" eclass="Energy/default" CO2="0.00" CO="0.00" HC="0.00" NOx="0.00" PMx="0.00" fuel="0.00" electricity="5.71" noise="64.58" route="!1" type="1" waiting="0.00" lane="-31606#0_0" pos="234.56" speed="9.00" angle="114.77" x="6675.82" y="6002.16"/>
        <vehicle id="10" eclass="Energy/default" CO2="0.00" CO="0.00" HC="0.00" NOx="0.00" PMx="0.00" fuel="0.00" electricity="5.29" noise="64.58" route="!10!var#1" type="1" waiting="0.00" lane="-31272#1_0" pos="9.07" speed="9.00" angle="279.43" x="7222.21" y="5516.96"/>
        <vehicle id="2" eclass="Energy/default" CO2="0.00" CO="0.00" HC="0.00" NOx="0.00" PMx="0.00" fuel="0.00" electricity="5.01" noise="64.58" route="!2" type="1" waiting="0.00" lane="--32406#2_0" pos="28.47" speed="9.00" angle="265.59" x="5515.16" y="7674.71"/>
        <vehicle id="3" eclass="Energy/default" CO2="0.00" CO="0.00" HC="0.00" NOx="0.00" PMx="0.00" fuel="0.00" electricity="2.95" noise="62.62" route="!3!var#1" type="1" waiting="0.00" lane=":-19244_4_0" pos="5.60" speed="5.30" angle="340.23" x="7987.85" y="5401.54"/>
        <vehicle id="4" eclass="Energy/default" CO2="0.00" CO="0.00" HC="0.00" NOx="0.00" PMx="0.00" fuel="0.00" electricity="4.12" noise="62.89" route="!4" type="1" waiting="0.00" lane="-32964#9_1" pos="1.49" speed="5.85" angle="292.91" x="7675.31" y="6125.82"/>
        <vehicle id="5" eclass="Energy/default" CO2="0.00" CO="0.00" HC="0.00" NOx="0.00" PMx="0.00" fuel="0.00" electricity="5.01" noise="64.58" route="!5" type="1" waiting="0.00" lane="-32340#7_0" pos="146.06" speed="9.00" angle="133.48" x="10604.72" y="9649.58"/>
        <vehicle id="6" eclass="Energy/default" CO2="0.00" CO="0.00" HC="0.00" NOx="0.00" PMx="0.00" fuel="0.00" electricity="5.01" noise="64.58" route="!6!var#1" type="1" waiting="0.00" lane="--30988#2_1" pos="163.04" speed="9.00" angle="9.65" x="7239.47" y="8200.58"/>
        <vehicle id="7" eclass="Energy/default" CO2="0.00" CO="0.00" HC="0.00" NOx="0.00" PMx="0.00" fuel="0.00" electricity="5.01" noise="64.58" route="!7" type="1" waiting="0.00" lane="--32244_0" pos="101.71" speed="9.00" angle="21.60" x="7646.70" y="9309.32"/>
        <vehicle id="8" eclass="Energy/default" CO2="0.00" CO="0.00" HC="0.00" NOx="0.00" PMx="0.00" fuel="0.00" electricity="5.01" noise="64.58" route="!8!var#1" type="1" waiting="0.00" lane="--32326#1_0" pos="46.53" speed="9.00" angle="265.31" x="5064.23" y="6691.22"/>
        <vehicle id="9" eclass="Energy/default" CO2="0.00" CO="0.00" HC="0.00" NOx="0.00" PMx="0.00" fuel="0.00" electricity="-3.19" noise="56.35" route="!9!var#1" type="1" waiting="0.00" lane="-32694_0" pos="68.56" speed="6.87" angle="62.15" x="3414.65" y="7763.81"/>
    </timestep>
    <timestep time="9.00">
        <vehicle id="1" eclass="Energy/default" CO2="0.00" CO="0.00" HC="0.00" NOx="0.00" PMx="0.00" fuel="0.00" electricity="6.07" noise="65.15" route="!1" type="1" waiting="0.00" lane="-31606#0_0" pos="244.56" speed="10.00" angle="109.79" x="6685.23" y="5998.77"/>
        <vehicle id="10" eclass="Energy/default" CO2="0.00" CO="0.00" HC="0.00" NOx="0.00" PMx="0.00" fuel="0.00" electricity="5.62" noise="65.15" route="!10!var#1" type="1" waiting="0.00" lane="-31272#1_0" pos="19.07" speed="10.00" angle="279.43" x="7212.35" y="5518.60"/>
        <vehicle id="2" eclass="Energy/default" CO2="0.00" CO="0.00" HC="0.00" NOx="0.00" PMx="0.00" fuel="0.00" electricity="5.70" noise="65.15" route="!2" type="1" waiting="0.00" lane="--32406#2_0" pos="38.47" speed="10.00" angle="266.48" x="5505.19" y="7674.02"/>
        <vehicle id="3" eclass="Energy/default" CO2="0.00" CO="0.00" HC="0.00" NOx="0.00" PMx="0.00" fuel="0.00" electricity="4.46" noise="63.12" route="!3!var#1" type="1" waiting="0.00" lane=":-19244_4_0" pos="11.90" speed="6.30" angle="310.63" x="7983.60" y="5405.81"/>
        <vehicle id="4" eclass="Energy/default" CO2="0.00" CO="0.00" HC="0.00" NOx="0.00" PMx="0.00" fuel="0.00" electricity="3.97" noise="63.41" route="!4" type="1" waiting="0.00" lane="-32964#9_1" pos="8.33" speed="6.85" angle="287.05" x="7668.83" y="6127.81"/>
        <vehicle id="5" eclass="Energy/default" CO2="0.00" CO="0.00" HC="0.00" NOx="0.00" PMx="0.00" fuel="0.00" electricity="6.22" noise="65.15" route="!5" type="1" waiting="0.00" lane="-32340#7_0" pos="156.06" speed="10.00" angle="140.12" x="10611.53" y="9642.31"/>
        <vehicle id="6" eclass="Energy/default" CO2="0.00" CO="0.00" HC="0.00" NOx="0.00" PMx="0.00" fuel="0.00" electricity="5.62" noise="65.15" route="!6!var#1" type="1" waiting="0.00" lane="--30988#2_1" pos="173.04" speed="10.00" angle="9.65" x="7241.13" y="8210.34"/>
        <vehicle id="7" eclass="Energy/default" CO2="0.00" CO="0.00" HC="0.00" NOx="0.00" PMx="0.00" fuel="0.00" electricity="5.63" noise="65.15" route="!7" type="1" waiting="0.00" lane="--32244_0" pos="111.71" speed="10.00" angle="21.60" x="7650.38" y="9318.62"/>
        <vehicle id="8" eclass="Energy/default" CO2="0.00" CO="0.00" HC="0.00" NOx="0.00" PMx="0.00" fuel="0.00" electricity="-3.34" noise="57.72" route="!8!var#1" type="1" waiting="0.00" lane="--32326#1_0" pos="54.61" speed="8.08" angle="265.31" x="5056.17" y="6690.56"/>
        <vehicle id="9" eclass="Energy/default" CO2="0.00" CO="0.00" HC="0.00" NOx="0.00" PMx="0.00" fuel="0.00" electricity="-2.77" noise="55.40" route="!9!var#1" type="1" waiting="0.00" lane="-32694_0" pos="74.42" speed="5.87" angle="62.15" x="3419.84" y="7766.55"/>
    </timestep>
    <timestep time="10.00">
        <vehicle id="1" eclass="Energy/default" CO2="0.00" CO="0.00" HC="0.00" NOx="0.00" PMx="0.00" fuel="0.00" electricity="6.83" noise="65.73" route="!1" type="1" waiting="0.00" lane="-31606#0_0" pos="255.56" speed="11.00" angle="104.39" x="6695.68" y="5995.51"/>
        <vehicle id="10" eclass="Energy/default" CO2="0.00" CO="0.00" HC="0.00" NOx="0.00" PMx="0.00" fuel="0.00" electricity="6.38" noise="65.73" route="!10!var#1" type="1" waiting="0.00" lane="-31272#1_0" pos="30.07" speed="11.00" angle="280.73" x="7201.53" y="5520.51"/>
        <vehicle id="2" eclass="Energy/default" CO2="0.00" CO="0.00" HC="0.00" NOx="0.00" PMx="0.00" fuel="0.00" electricity="7.11" noise="65.73" route="!2" type="1" waiting="0.00" lane="--32406#2_0" pos="49.47" speed="11.00" angle="274.42" x="5494.22" y="7674.87"/>