<?xml version="1.0" encoding="UTF-8"?>

<!-- generated on 2023-11-30 08:46:11 by Eclipse SUMO sumo Version v1_19_0+0260-f25044b3d77
<configuration xmlns:xsi="http://www.w3.org/2001/XMLSchema-instance" xsi:noNamespaceSchemaLocation="http://sumo.dlr.de/xsd/sumoConfiguration.xsd">

    <input>
        <net-file value="sumo_scenario/lust.net.xml"/>
        <route-files value="sumo_scenario/routes.xml"/>
        <additional-files value="sumo_scenario/vtypes.add.xml"/>
    </input>

    <output>
        <emission-output value="output-files/outputs/emissions.xml"/>
        <battery-output value="sumo_scenario/Battery.out.xml"/>
        <battery-output.precision value="4"/>
        <fcd-output value="output-files/outputs/vehicle-trajectories.xml"/>
        <summary-output value="sumo_scenario/dua.actuated.summary.xml"/>
        <tripinfo-output value="sumo_scenario/dua.actuated.tripinfo.xml"/>
    </output>

    <time>
        <begin value="0"/>
        <step-length value="1"/>
    </time>

    <processing>
        <ignore-junction-blocker value="20"/>
        <time-to-teleport value="600"/>
        <max-depart-delay value="600"/>
    </processing>

    <routing>
        <routing-algorithm value="dijkstra"/>
        <device.rerouting.probability value="0.70"/>
        <device.rerouting.period value="300"/>
        <device.rerouting.pre-period value="300"/>
    </routing>

    <report>
        <verbose value="true"/>
        <log value="sumo_scenario/dua.actuated.log"/>
    </report>

    <battery>
        <device.battery.probability value="1"/>
    </battery>

</configuration>
-->

<emission-export xmlns:xsi="http://www.w3.org/2001/XMLSchema-instance" xsi:noNamespaceSchemaLocation="http://sumo.dlr.de/xsd/emission_file.xsd">
    <timestep time="0.00">
        <vehicle id="1" eclass="Energy/default" CO2="0.00" CO="0.00" HC="0.00" NOx="0.00" PMx="0.00" fuel="0.00" electricity="0.08" noise="56.33" route="!1" type="1" waiting="0.00" lane="-31606#0_0" pos="13.12" speed="1.00" angle="126.98" x="6587.88" y="6174.67"/>
        <vehicle id="2" eclass="Energy/default" CO2="0.00" CO="0.00" HC="0.00" NOx="0.00" PMx="0.00" fuel="0.00" electricity="0.08" noise="56.33" route="!2" type="1" waiting="0.00" lane="-31606#0_0" pos="223.59" speed="1.00" angle="124.29" x="6666.37" y="6007.61"/>
        <vehicle id="3" eclass="Energy/default" CO2="0.00" CO="0.00" HC="0.00" NOx="0.00" PMx="0.00" fuel="0.00" electricity="0.08" noise="56.33" route="!3" type="1" waiting="0.00" lane="-31606#0_0" pos="74.45" speed="1.00" angle="187.25" x="6573.81" y="6116.97"/>
    </timestep>
    <timestep time="1.00">
        <vehicle id="1" eclass="Energy/default" CO2="0.00" CO="0.00" HC="0.00" NOx="0.00" PMx="0.00" fuel="0.00" electricity="0.91" noise="61.12" route="!1" type="1" waiting="0.00" lane="-31606#0_0" pos="15.12" speed="2.00" angle="138.20" x="6588.70" y="6172.88"/>
        <vehicle id="2" eclass="Energy/default" CO2="0.00" CO="0.00" HC="0.00" NOx="0.00" PMx="0.00" fuel="0.00" electricity="0.91" noise="61.12" route="!2" type="1" waiting="0.00" lane="-31606#0_0" pos="225.59" speed="2.00" angle="124.29" x="6668.02" y="6006.48"/>
        <vehicle id="3" eclass="Energy/default" CO2="0.00" CO="0.00" HC="0.00" NOx="0.00" PMx="0.00" fuel="0.00" electricity="0.91" noise="61.12" route="!3" type="1" waiting="0.00" lane="-31606#0_0" pos="76.45" speed="2.00" angle="187.25" x="6573.56" y="6114.98"/>
    </timestep>
    <timestep time="2.00">
        <vehicle id="1" eclass="Energy/default" CO2="0.00" CO="0.00" HC="0.00" NOx="0.00" PMx="0.00" fuel="0.00" electricity="1.64" noise="61.54" route="!1" type="1" waiting="0.00" lane="-31606#0_0" pos="18.12" speed="3.00" angle="157.48" x="6589.79" y="6170.08"/>
        <vehicle id="2" eclass="Energy/default" CO2="0.00" CO="0.00" HC="0.00" NOx="0.00" PMx="0.00" fuel="0.00" electricity="1.48" noise="61.54" route="!2" type="1" waiting="0.00" lane="-31606#0_0" pos="228.59" speed="3.00" angle="124.29" x="6670.50" y="6004.79"/>
        <vehicle id="3" eclass="Energy/default" CO2="0.00" CO="0.00" HC="0.00" NOx="0.00" PMx="0.00" fuel="0.00" electricity="1.48" noise="61.54" route="!3" type="1" waiting="0.00" lane="-31606#0_0" pos="79.45" speed="3.00" angle="187.25" x="6573.18" y="6112.01"/>
    </timestep>
    <timestep time="3.00">
        <vehicle id="1" eclass="Energy/default" CO2="0.00" CO="0.00" HC="0.00" NOx="0.00" PMx="0.00" fuel="0.00" electricity="2.23" noise="61.99" route="!1" type="1" waiting="0.00" lane="-31606#0_0" pos="22.12" speed="4.00" angle="169.69" x="6590.27" y="6166.36"/>
        <vehicle id="2" eclass="Energy/default" CO2="0.00" CO="0.00" HC="0.00" NOx="0.00" PMx="0.00" fuel="0.00" electricity="2.11" noise="61.99" route="!2" type="1" waiting="0.00" lane="-31606#0_0" pos="232.59" speed="4.00" angle="120.52" x="6673.96" y="6002.83"/>
        <vehicle id="3" eclass="Energy/default" CO2="0.00" CO="0.00" HC="0.00" NOx="0.00" PMx="0.00" fuel="0.00" electricity="2.25" noise="61.99" route="!3" type="1" waiting="0.00" lane="-31606#0_0" pos="83.45" speed="4.00" angle="174.13" x="6573.81" y="6108.07"/>
    </timestep>
    <timestep time="4.00">
        <vehicle id="1" eclass="Energy/default" CO2="0.00" CO="0.00" HC="0.00" NOx="0.00" PMx="0.00" fuel="0.00" electricity="3.37" noise="62.47" route="!1" type="1" waiting="0.00" lane="-31606#0_0" pos="27.12" speed="5.00" angle="201.94" x="6588.40" y="6161.72"/>
        <vehicle id="2" eclass="Energy/default" CO2="0.00" CO="0.00" HC="0.00" NOx="0.00" PMx="0.00" fuel="0.00" electricity="2.88" noise="62.47" route="!2" type="1" waiting="0.00" lane="-31606#0_0" pos="237.59" speed="5.00" angle="109.79" x="6678.66" y="6001.14"/>
        <vehicle id="3" eclass="Energy/default" CO2="0.00" CO="0.00" HC="0.00" NOx="0.00" PMx="0.00" fuel="0.00" electricity="2.74" noise="62.47" route="!3" type="1" waiting="0.00" lane="-31606#0_0" pos="88.45" speed="5.00" angle="169.51" x="6574.72" y="6103.15"/>
    </timestep>
    <timestep time="5.00">
        <vehicle id="1" eclass="Energy/default" CO2="0.00" CO="0.00" HC="0.00" NOx="0.00" PMx="0.00" fuel="0.00" electricity="3.22" noise="62.97" route="!1" type="1" waiting="0.00" lane="-31606#0_0" pos="33.12" speed="6.00" angle="201.94" x="6586.16" y="6156.16"/>
        <vehicle id="2" eclass="Energy/default" CO2="0.00" CO="0.00" HC="0.00" NOx="0.00" PMx="0.00" fuel="0.00" electricity="3.22" noise="62.97" route="!2" type="1" waiting="0.00" lane="-31606#0_0" pos="243.59" speed="6.00" angle="109.79" x="6684.31" y="5999.10"/>
        <vehicle id="3" eclass="Energy/default" CO2="0.00" CO="0.00" HC="0.00" NOx="0.00" PMx="0.00" fuel="0.00" electricity="3.22" noise="62.97" route="!3" type="1" waiting="0.00" lane="-31606#0_0" pos="94.45" speed="6.00" angle="169.51" x="6575.81" y="6097.25"/>
    </timestep>
    <timestep time="6.00">
        <vehicle id="1" eclass="Energy/default" CO2="0.00" CO="0.00" HC="0.00" NOx="0.00" PMx="0.00" fuel="0.00" electricity="3.84" noise="63.49" route="!1" type="1" waiting="0.00" lane="-31606#0_0" pos="40.12" speed="7.00" angle="201.22" x="6583.60" y="6149.64"/>
        <vehicle id="2" eclass="Energy/default" CO2="0.00" CO="0.00" HC="0.00" NOx="0.00" PMx="0.00" fuel="0.00" electricity="3.81" noise="63.49" route="!2" type="1" waiting="0.00" lane="-31606#0_0" pos="250.59" speed="7.00" angle="109.79" x="6690.89" y="5996.73"/>
        <vehicle id="3" eclass="Energy/default" CO2="0.00" CO="0.00" HC="0.00" NOx="0.00" PMx="0.00" fuel="0.00" electricity="4.33" noise="63.49" route="!3" type="1" waiting="0.00" lane="-31606#0_0" pos="101.45" speed="7.00" angle="157.87" x="6578.03" y="6090.73"/>
    </timestep>
    <timestep time="7.00">
        <vehicle id="1" eclass="Energy/default" CO2="0.00" CO="0.00" HC="0.00" NOx="0.00" PMx="0.00" fuel="0.00" electricity="4.41" noise="64.03" route="!1" type="1" waiting="0.00" lane="-31606#0_0" pos="48.12" speed="8.00" angle="201.22" x="6580.71" y="6142.18"/>
        <vehicle id="2" eclass="Energy/default" CO2="0.00" CO="0.00" HC="0.00" NOx="0.00" PMx="0.00" fuel="0.00" electricity="5.21" noise="64.03" route="!2" type="1" waiting="0.00" lane="-31606#0_0" pos="258.59" speed="8.00" angle="95.86" x="6698.69" y="5995.21"/>
        <vehicle id="3" eclass="Energy/default" CO2="0.00" CO="0.00" HC="0.00" NOx="0.00" PMx="0.00" fuel="0.00" electricity="4.94" noise="64.03" route="!3" type="1" waiting="0.00" lane="-31606#0_0" pos="109.45" speed="8.00" angle="148.72" x="6582.19" y="6083.89"/>
    </timestep>
    <timestep time="8.00">
        <vehicle id="1" eclass="Energy/default" CO2="0.00" CO="0.00" HC="0.00" NOx="0.00" PMx="0.00" fuel="0.00" electricity="5.01" noise="64.58" route="!1" type="1" waiting="0.00" lane="-31606#0_0" pos="57.12" speed="9.00" angle="201.22" x="6577.45" y="6133.79"/>
        <vehicle id="2" eclass="Energy/default" CO2="0.00" CO="0.00" HC="0.00" NOx="0.00" PMx="0.00" fuel="0.00" electricity="5.02" noise="64.58" route="!2" type="1" waiting="0.00" lane="-31606#0_0" pos="267.59" speed="9.00" angle="95.70" x="6707.64" y="5994.31"/>
        <vehicle id="3" eclass="Energy/default" CO2="0.00" CO="0.00" HC="0.00" NOx="0.00" PMx="0.00" fuel="0.00" electricity="5.01" noise="64.58" route="!3" type="1" waiting="0.00" lane="-31606#0_0" pos="118.45" speed="9.00" angle="148.72" x="6586.86" y="6076.20"/>
    </timestep>
    <timestep time="9.00">
        <vehicle id="1" eclass="Energy/default" CO2="0.00" CO="0.00" HC="0.00" NOx="0.00" PMx="0.00" fuel="0.00" electricity="6.59" noise="65.15" route="!1" type="1" waiting="0.00" lane="-31606#0_0" pos="67.12" speed="10.00" angle="190.51" x="6574.74" y="6124.24"/>
        <vehicle id="2" eclass="Energy/default" CO2="0.00" CO="0.00" HC="0.00" NOx="0.00" PMx="0.00" fuel="0.00" electricity="5.62" noise="65.15" route="!2" type="1" waiting="0.00" lane="-31606#0_0" pos="277.59" speed="10.00" angle="95.70" x="6717.60" y="5993.32"/>
        <vehicle id="3" eclass="Energy/default" CO2="0.00" CO="0.00" HC="0.00" NOx="0.00" PMx="0.00" fuel="0.00" electricity="7.09" noise="65.15" route="!3" type="1" waiting="0.00" lane="-31606#0_0" pos="128.45" speed="10.00" angle="132.54" x="6594.18" y="6069.40"/>
    </timestep>
    <timestep time="10.00">
        <vehicle id="1" eclass="Energy/default" CO2="0.00" CO="0.00" HC="0.00" NOx="0.00" PMx="0.00" fuel="0.00" electricity="6.60" noise="65.73" route="!1" type="1" waiting="0.00" lane="-31606#0_0" pos="78.12" speed="11.00" angle="187.25" x="6573.35" y="6113.33"/>
        <vehicle id="2" eclass="Energy/default" CO2="0.00" CO="0.00" HC="0.00" NOx="0.00" PMx="0.00" fuel="0.00" electricity="7.54" noise="65.73" route="!2" type="1" waiting="0.00" lane="-31606#0_0" pos="288.59" speed="11.00" angle="83.86" x="6728.54" y="5993.29"/>
        <vehicle id="3" eclass="Energy/default" CO2="0.00" CO="0.00" HC="0.00" NOx="0.00" PMx="0.00" fuel="0.00" electricity="6.25" noise="65.73" route="!3" type="1" waiting="0.00" lane="-31606#0_0" pos="139.45" speed="11.00" angle="132.54" x="6602.28" y="6061.96"/>
    </timestep>
    <timestep time="11.00">
        <vehicle id="1" eclass="Energy/default" CO2="0.00" CO="0.00" HC="0.00" NOx="0.00" PMx="0.00" fuel="0.00" electricity="9.19" noise="66.31" route="!1" type="1" waiting="0.00" lane="-31606#0_0" pos="90.12" speed="12.00" angle="169.51" x="6575.03" y="6101.51"/>
        <vehicle id="2" eclass="Energy/default" CO2="0.00" CO="0.00" HC="0.00" NOx="0.00" PMx="0.00" fuel="0.00" electricity="6.88" noise="66.31" route="!2" type="1" waiting="0.00" lane="-31606#0_0" pos="300.59" speed="12.00" angle="83.86" x="6740.47" y="5994.58"/>
        <vehicle id="3" eclass="Energy/default" CO2="0.00" CO="0.00" HC="0.00" NOx="0.00" PMx="0.00" fuel="0.00" electricity="6.88" noise="66.31" route="!3" type="1" waiting="0.00" lane="-31606#0_0" pos="151.45" speed="12.00" angle="132.54" x="6611.12" y="6053.85"/>
    </timestep>
    <timestep time="12.00">
        <vehicle id="1" eclass="Energy/default" CO2="0.00" CO="0.00" HC="0.00" NOx="0.00" PMx="0.00" fuel="0.00" electricity="10.36" noise="66.89" route="!1" type="1" waiting="0.00" lane="-31606#0_0" pos="103.12" speed="13.00" angle="150.92" x="6578.90" y="6089.31"/>
        <vehicle id="2" eclass="Energy/default" CO2="0.00" CO="0.00" HC="0.00" NOx="0.00" PMx="0.00" fuel="0.00" electricity="12.61" noise="66.89" route="!2" type="1" waiting="0.00" lane="-31606#1_0" pos="6.94" speed="13.00" angle="50.55" x="6751.30" y="6001.20"/>
        <vehicle id="3" eclass="Energy/default" CO2="0.00" CO="0.00" HC="0.00" NOx="0.00" PMx="0.00" fuel="0.00" electricity="7.53" noise="66.89" route="!3" type="1" waiting="0.00" lane="-31606#0_0" pos="164.45" speed="13.00" angle="132.54" x="6620.70" y="6045.06"/>
    </timestep>
    <timestep time="13.00">
        <vehicle id="1" eclass="Energy/default" CO2="0.00" CO="0.00" HC="0.00" NOx="0.00" PMx="0.00" fuel="0.00" electricity="8.56" noise="67.47" route="!1" type="1" waiting="0.00" lane="-31606#0_0" pos="117.12" speed="14.00" angle="148.72" x="6586.17" y="6077.34"/>
        <vehicle id="2" eclass="Energy/default" CO2="0.00" CO="0.00" HC="0.00" NOx="0.00" PMx="0.00" fuel="0.00" electricity="4.60" noise="64.04" route="!2" type="1" waiting="0.00" lane="-31606#1_0" pos="19.97" speed="13.03" angle="28.84" x="6758.13" y="6012.25"/>
        <vehicle id="3" eclass="Energy/default" CO2="0.00" CO="0.00" HC="0.00" NOx="0.00" PMx="0.00" fuel="0.00" electricity="8.47" noise="67.47" route="!3" type="1" waiting="0.00" lane="-31606#0_0" pos="178.45" speed="14.00" angle="130.87" x="6631.27" y="6035.87"/>
    </timestep>
    <timestep time="14.00">
        <vehicle id="1" eclass="Energy/default" CO2="0.00" CO="0.00" HC="0.00" NOx="0.00" PMx="0.00" fuel="0.00" electricity="9.84" noise="67.03" route="!1" type="1" waiting="0.00" lane="-31606#0_0" pos="131.84" speed="14.72" angle="132.54" x="6596.67" y="6067.11"/>
        <vehicle id="2" eclass="Energy/default" CO2="0.00" CO="0.00" HC="0.00" NOx="0.00" PMx="0.00" fuel="0.00" electricity="1.45" noise="63.96" route="!2" type="1" waiting="0.00" lane="-31606#1_0" pos="33.00" speed="13.03" angle="26.12" x="6763.87" y="6023.95"/>
        <vehicle id="3" eclass="Energy/default" CO2="0.00" CO="0.00" HC="0.00" NOx="0.00" PMx="0.00" fuel="0.00" electricity="1.42" noise="64.75" route="!3" type="1" waiting="0.00" lane="-31606#0_0" pos="192.49" speed="14.03" angle="130.87" x="6641.88" y="6026.69"/>
    </timestep>
    <timestep time="15.00">
        <vehicle id="1" eclass="Energy/default" CO2="0.00" CO="0.00" HC="0.00" NOx="0.00" PMx="0.00" fuel="0.00" electricity="1.29" noise="65.15" route="!1" type="1" waiting="0.00" lane="-31606#0_0" pos="146.57" speed="14.72" angle="132.54" x="6607.52" y="6057.15"/>
        <vehicle id="2" eclass="Energy/default" CO2="0.00" CO="0.00" HC="0.00" NOx="0.00" PMx="0.00" fuel="0.00" electricity="1.99" noise="63.96" route="!2" type="1" waiting="0.00" lane="-31606#1_0" pos="46.04" speed="13.03" angle="32.34" x="6770.05" y="6035.35"/>
        <vehicle id="3" eclass="Energy/default" CO2="0.00" CO="0.00" HC="0.00" NOx="0.00" PMx="0.00" fuel="0.00" electricity="1.17" noise="64.67" route="!3" type="1" waiting="0.00" lane="-31606#0_0" pos="206.52" speed="14.03" angle="130.87" x="6652.49" y="6017.51"/>
    </timestep>
    <timestep time="16.00">
        <vehicle id="1" eclass="Energy/default" CO2="0.00" CO="0.00" HC="0.00" NOx="0.00" PMx="0.00" fuel="0.00" electricity="1.29" noise="65.15" route="!1" type="1" waiting="0.00" lane="-31606#0_0" pos="161.29" speed="14.72" angle="132.54" x="6618.37" y="6047.20"/>
        <vehicle id="2" eclass="Energy/default" CO2="0.00" CO="0.00" HC="0.00" NOx="0.00" PMx="0.00" fuel="0.00" electricity="5.24" noise="63.96" route="!2" type="1" waiting="0.00" lane="-31606#1_0" pos="59.07" speed="13.03" angle="59.69" x="6779.95" y="6043.60"/>
        <vehicle id="3" eclass="Energy/default" CO2="0.00" CO="0.00" HC="0.00" NOx="0.00" PMx="0.00" fuel="0.00" electricity="2.35" noise="64.67" route="!3" type="1" waiting="0.00" lane="-31606#0_0" pos="220.56" speed="14.03" angle="124.29" x="6663.87" y="6009.31"/>
    </timestep>
    <timestep time="17.00">
        <vehicle id="1" eclass="Energy/default" CO2="0.00" CO="0.00" HC="0.00" NOx="0.00" PMx="0.00" fuel="0.00" electricity="1.60" noise="65.15" route="!1" type="1" waiting="0.00" lane="-31606#0_0" pos="176.01" speed="14.72" angle="130.87" x="6629.42" y="6037.47"/>
        <vehicle id="2" eclass="Energy/default" CO2="0.00" CO="0.00" HC="0.00" NOx="0.00" PMx="0.00" fuel="0.00" electricity="3.92" noise="63.96" route="!2" type="1" waiting="0.00" lane="-31606#1_0" pos="72.10" speed="13.03" angle="78.47" x="6792.61" y="6046.55"/>
        <vehicle id="3" eclass="Energy/default" CO2="0.00" CO="0.00" HC="0.00" NOx="0.00" PMx="0.00" fuel="0.00" electricity="2.88" noise="64.67" route="!3" type="1" waiting="0.00" lane="-31606#0_0" pos="234.59" speed="14.03" angle="114.68" x="6675.84" y="6002.15"/>
    </timestep>
    <timestep time="18.00">
        <vehicle id="1" eclass="Energy/default" CO2="0.00" CO="0.00" HC="0.00" NOx="0.00" PMx="0.00" fuel="0.00" electricity="1.27" noise="65.15" route="!1" type="1" waiting="0.00" lane="-31606#0_0" pos="190.74" speed="14.72" angle="130.87" x="6640.56" y="6027.84"/>
        <vehicle id="2" eclass="Energy/default" CO2="0.00" CO="0.00" HC="0.00" NOx="0.00" PMx="0.00" fuel="0.00" electricity="3.90" noise="63.96" route="!2" type="1" waiting="0.00" lane="-31606#1_0" pos="85.13" speed="13.03" angle="97.10" x="6805.52" y="6045.91"/>
        <vehicle id="3" eclass="Energy/default" CO2="0.00" CO="0.00" HC="0.00" NOx="0.00" PMx="0.00" fuel="0.00" electricity="2.04" noise="64.67" route="!3" type="1" waiting="0.00" lane="-31606#0_0" pos="248.63" speed="14.03" angle="109.79" x="6689.05" y="5997.40"/>
    </timestep>
    <timestep time="19.00">
        <vehicle id="1" eclass="Energy/default" CO2="0.00" CO="0.00" HC="0.00" NOx="0.00" PMx="0.00" fuel="0.00" electricity="1.27" noise="65.15" route="!1" type="1" waiting="0.00" lane="-31606#0_0" pos="205.46" speed="14.72" angle="130.87" x="6651.69" y="6018.20"/>
        <vehicle id="2" eclass="Energy/default" CO2="0.00" CO="0.00" HC="0.00" NOx="0.00" PMx="0.00" fuel="0.00" electricity="5.71" noise="63.96" route="!2" type="1" waiting="0.00" lane="-31606#1_0" pos="98.17" speed="13.03" angle="127.51" x="6816.76" y="6039.64"/>
        <vehicle id="3" eclass="Energy/default" CO2="0.00" CO="0.00" HC="0.00" NOx="0.00" PMx="0.00" fuel="0.00" electricity="3.68" noise="64.67" route="!3" type="1" waiting="0.00" lane="-31606#0_0" pos="262.66" speed="14.03" angle="95.70" x="6702.74" y="5994.80"/>
    </timestep>
    <timestep time="20.00">
        <vehicle id="1" eclass="Energy/default" CO2="0.00" CO="0.00" HC="0.00" NOx="0.00" PMx="0.00" fuel="0.00" electricity="2.57" noise="65.15" route="!1" type="1" waiting="0.00" lane="-31606#0_0" pos="220.18" speed="14.72" angle="124.29" x="6663.56" y="6009.52"/>
        <vehicle id="2" eclass="Energy/default" CO2="0.00" CO="0.00" HC="0.00" NOx="0.00" PMx="0.00" fuel="0.00" electricity="2.30" noise="63.96" route="!2" type="1" waiting="0.00" lane="-31606#1_0" pos="111.20" speed="13.03" angle="135.75" x="6826.09" y="6030.57"/>
        <vehicle id="3" eclass="Energy/default" CO2="0.00" CO="0.00" HC="0.00" NOx="0.00" PMx="0.00" fuel="0.00" electricity="1.17" noise="64.67" route="!3" type="1" waiting="0.00" lane="-31606#0_0" pos="276.69" speed="14.03" angle="95.70" x="6716.71" y="5993.41"/>
    </timestep>
    <timestep time="21.00">
        <vehicle id="1" eclass="Energy/default" CO2="0.00" CO="0.00" HC="0.00" NOx="0.00" PMx="0.00" fuel="0.00" electricity="3.34" noise="65.15" route="!1" type="1" waiting="0.00" lane="-31606#0_0" pos="234.91" speed="14.72" angle="113.77" x="6676.14" y="6002.04"/>
        <vehicle id="2" eclass="Energy/default" CO2="0.00" CO="0.00" HC="0.00" NOx="0.00" PMx="0.00" fuel="0.00" electricity="2.67" noise="63.96" route="!2" type="1" waiting="0.00" lane="-31606#1_0" pos="124.23" speed="13.03" angle="146.40" x="6833.73" y="6020.05"/>
        <vehicle id="3" eclass="Energy/default" CO2="0.00" CO="0.00" HC="0.00" NOx="0.00" PMx="0.00" fuel="0.00" electricity="3.28" noise="64.67" route="!3" type="1" waiting="0.00" lane="-31606#0_0" pos="290.73" speed="14.03" angle="83.86" x="6730.67" y="5993.52"/>
    </timestep>
    <timestep time="22.00">
        <vehicle id="1" eclass="Energy/default" CO2="0.00" CO="0.00" HC="0.00" NOx="0.00" PMx="0.00" fuel="0.00" electricity="2.05" noise="65.15" route="!1" type="1" waiting="0.00" lane="-31606#0_0" pos="249.63" speed="14.72" angle="109.79" x="6689.99" y="5997.06"/>
        <vehicle id="2" eclass="Energy/default" CO2="0.00" CO="0.00" HC="0.00" NOx="0.00" PMx="0.00" fuel="0.00" electricity="2.84" noise="63.85" route="!2" type="1" waiting="0.00" lane="-31606#1_0" pos="137.23" speed="13.00" angle="159.83" x="6839.35" y="6008.43"/>
        <vehicle id="3" eclass="Energy/default" CO2="0.00" CO="0.00" HC="0.00" NOx="0.00" PMx="0.00" fuel="0.00" electricity="2.50" noise="64.67" route="!3" type="1" waiting="0.00" lane=":-18084_3_0" pos="3.94" speed="14.03" angle="76.41" x="6744.44" y="5995.65"/>
    </timestep>
    <timestep time="23.00">
        <vehicle id="1" eclass="Energy/default" CO2="0.00" CO="0.00" HC="0.00" NOx="0.00" PMx="0.00" fuel="0.00" electricity="4.04" noise="65.15" route="!1" type="1" waiting="0.00" lane="-31606#0_0" pos="264.35" speed="14.72" angle="95.70" x="6704.43" y="5994.64"/>
        <vehicle id="2" eclass="Energy/default" CO2="0.00" CO="0.00" HC="0.00" NOx="0.00" PMx="0.00" fuel="0.00" electricity="-3.41" noise="61.18" route="!2" type="1" waiting="0.00" lane="-31606#1_0" pos="149.23" speed="12.00" angle="174.81" x="6841.33" y="5996.68"/>
        <vehicle id="3" eclass="Energy/default" CO2="0.00" CO="0.00" HC="0.00" NOx="0.00" PMx="0.00" fuel="0.00" electricity="8.85" noise="64.67" route="!3" type="1" waiting="0.00" lane="-31606#1_0" pos="12.15" speed="14.03" angle="33.37" x="6754.20" y="6005.50"/>
    </timestep>
    <timestep time="24.00">
        <vehicle id="1" eclass="Energy/default" CO2="0.00" CO="0.00" HC="0.00" NOx="0.00" PMx="0.00" fuel="0.00" electricity="1.27" noise="65.15" route="!1" type="1" waiting="0.00" lane="-31606#0_0" pos="279.08" speed="14.72" angle="95.70" x="6719.08" y="5993.17"/>
        <vehicle id="2" eclass="Energy/default" CO2="0.00" CO="0.00" HC="0.00" NOx="0.00" PMx="0.00" fuel="0.00" electricity="-4.86" noise="60.28" route="!2" type="1" waiting="0.00" lane="-31606#1_0" pos="160.23" speed="11.00" angle="174.81" x="6842.32" y="5985.73"/>
        <vehicle id="3" eclass="Energy/default" CO2="0.00" CO="0.00" HC="0.00" NOx="0.00" PMx="0.00" fuel="0.00" electricity="2.47" noise="64.67" route="!3" type="1" waiting="0.00" lane="-31606#1_0" pos="26.18" speed="14.03" angle="26.12" x="6760.87" y="6017.83"/>
    </timestep>
    <timestep time="25.00">
        <vehicle id="1" eclass="Energy/default" CO2="0.00" CO="0.00" HC="0.00" NOx="0.00" PMx="0.00" fuel="0.00" electricity="3.60" noise="65.15" route="!1" type="1" waiting="0.00" lane="-31606#0_0" pos="293.80" speed="14.72" angle="83.86" x="6733.72" y="5993.85"/>
        <vehicle id="2" eclass="Energy/default" CO2="0.00" CO="0.00" HC="0.00" NOx="0.00" PMx="0.00" fuel="0.00" electricity="-4.41" noise="59.35" route="!2" type="1" waiting="0.00" lane="-31606#1_0" pos="170.22" speed="10.00" angle="175.48" x="6843.17" y="5975.77"/>
        <vehicle id="3" eclass="Energy/default" CO2="0.00" CO="0.00" HC="0.00" NOx="0.00" PMx="0.00" fuel="0.00" electricity="1.17" noise="64.67" route="!3" type="1" waiting="0.00" lane="-31606#1_0" pos="40.22" speed="14.03" angle="26.12" x="6767.04" y="6030.43"/>
    </timestep>
    <timestep time="26.00">
        <vehicle id="1" eclass="Energy/default" CO2="0.00" CO="0.00" HC="0.00" NOx="0.00" PMx="0.00" fuel="0.00" electricity="7.09" noise="65.15" route="!1" type="1" waiting="0.00" lane="-31606#1_0" pos="1.87" speed="14.72" angle="54.24" x="6747.39" y="5997.98"/>
        <vehicle id="2" eclass="Energy/default" CO2="0.00" CO="0.00" HC="0.00" NOx="0.00" PMx="0.00" fuel="0.00" electricity="-3.87" noise="58.40" route="!2" type="1" waiting="0.00" lane="-31606#1_0" pos="179.22" speed="9.00" angle="178.41" x="6843.42" y="5966.78"/>
        <vehicle id="3" eclass="Energy/default" CO2="0.00" CO="0.00" HC="0.00" NOx="0.00" PMx="0.00" fuel="0.00" electricity="4.74" noise="64.67" route="!3" type="1" waiting="0.00" lane="-31606#1_0" pos="54.25" speed="14.03" angle="46.16" x="6775.79" y="6041.17"/>
    </timestep>
    <timestep time="27.00">
        <vehicle id="1" eclass="Energy/default" CO2="0.00" CO="0.00" HC="0.00" NOx="0.00" PMx="0.00" fuel="0.00" electricity="5.53" noise="65.15" route="!1" type="1" waiting="0.00" lane="-31606#1_0" pos="16.60" speed="14.72" angle="32.54" x="6756.60" y="6009.25"/>
        <vehicle id="2" eclass="Energy/default" CO2="0.00" CO="0.00" HC="0.00" NOx="0.00" PMx="0.00" fuel="0.00" electricity="-3.66" noise="57.44" route="!2" type="1" waiting="0.00" lane="-31606#1_0" pos="187.22" speed="8.00" angle="178.41" x="6843.64" y="5958.78"/>
        <vehicle id="3" eclass="Energy/default" CO2="0.00" CO="0.00" HC="0.00" NOx="0.00" PMx="0.00" fuel="0.00" electricity="6.83" noise="64.67" route="!3" type="1" waiting="0.00" lane="-31606#1_0" pos="68.29" speed="14.03" angle="77.90" x="6788.87" y="6045.78"/>
    </timestep>
    <timestep time="28.00">
        <vehicle id="1" eclass="Energy/default" CO2="0.00" CO="0.00" HC="0.00" NOx="0.00" PMx="0.00" fuel="0.00" electricity="2.53" noise="65.15" route="!1" type="1" waiting="0.00" lane="-31606#1_0" pos="31.32" speed="14.72" angle="26.12" x="6763.13" y="6022.44"/>
        <vehicle id="2" eclass="Energy/default" CO2="0.00" CO="0.00" HC="0.00" NOx="0.00" PMx="0.00" fuel="0.00" electricity="-3.25" noise="56.47" route="!2" type="1" waiting="0.00" lane="-31606#1_0" pos="194.21" speed="7.00" angle="178.41" x="6843.83" y="5951.79"/>
        <vehicle id="3" eclass="Energy/default" CO2="0.00" CO="0.00" HC="0.00" NOx="0.00" PMx="0.00" fuel="0.00" electricity="4.07" noise="64.67" route="!3" type="1" waiting="0.00" lane="-31606#1_0" pos="82.32" speed="14.03" angle="94.18" x="6802.76" y="6046.37"/>
    </timestep>
    <timestep time="29.00">
        <vehicle id="1" eclass="Energy/default" CO2="0.00" CO="0.00" HC="0.00" NOx="0.00" PMx="0.00" fuel="0.00" electricity="2.50" noise="65.15" route="!1" type="1" waiting="0.00" lane="-31606#1_0" pos="46.04" speed="14.72" angle="32.37" x="6770.06" y="6035.36"/>
        <vehicle id="2" eclass="Energy/default" CO2="0.00" CO="0.00" HC="0.00" NOx="0.00" PMx="0.00" fuel="0.00" electricity="-2.74" noise="55.52" route="!2" type="1" waiting="0.00" lane="-31606#1_0" pos="200.21" speed="6.00" angle="175.58" x="6844.25" y="5945.83"/>
        <vehicle id="3" eclass="Energy/default" CO2="0.00" CO="0.00" HC="0.00" NOx="0.00" PMx="0.00" fuel="0.00" electricity="7.11" noise="64.67" route="!3" type="1" waiting="0.00" lane="-31606#1_0" pos="96.35" speed="14.03" angle="127.51" x="6815.32" y="6040.74"/>
    </timestep>
    <timestep time="30.00">
        <vehicle id="1" eclass="Energy/default" CO2="0.00" CO="0.00" HC="0.00" NOx="0.00" PMx="0.00" fuel="0.00" electricity="7.29" noise="65.15" route="!1" type="1" waiting="0.00" lane="-31606#1_0" pos="60.77" speed="14.72" angle="63.01" x="6781.52" y="6044.19"/>
        <vehicle id="2" eclass="Energy/default" CO2="0.00" CO="0.00" HC="0.00" NOx="0.00" PMx="0.00" fuel="0.00" electricity="-2.18" noise="54.62" route="!2" type="1" waiting="0.00" lane="-31606#1_0" pos="205.21" speed="5.00" angle="165.35" x="6845.51" y="5940.99"/>
        <vehicle id="3" eclass="Energy/default" CO2="0.00" CO="0.00" HC="0.00" NOx="0.00" PMx="0.00" fuel="0.00" electricity="2.64" noise="64.67" route="!3" type="1" waiting="0.00" lane="-31606#1_0" pos="110.39" speed="14.03" angle="135.75" x="6825.52" y="6031.15"/>
    </timestep>
    <timestep time="31.00">
        <vehicle id="1" eclass="Energy/default" CO2="0.00" CO="0.00" HC="0.00" NOx="0.00" PMx="0.00" fuel="0.00" electricity="5.11" noise="65.15" route="!1" type="1" waiting="0.00" lane="-31606#1_0" pos="75.49" speed="14.72" angle="82.58" x="6795.95" y="6046.86"/>
        <vehicle id="2" eclass="Energy/default" CO2="0.00" CO="0.00" HC="0.00" NOx="0.00" PMx="0.00" fuel="0.00" electricity="-1.97" noise="53.79" route="!2" type="1" waiting="0.00" lane="-31606#1_0" pos="209.21" speed="4.00" angle="165.35" x="6846.52" y="5937.13"/>
        <vehicle id="3" eclass="Energy/default" CO2="0.00" CO="0.00" HC="0.00" NOx="0.00" PMx="0.00" fuel="0.00" electricity="-1.25" noise="63.06" route="!3" type="1" waiting="0.00" lane="-31606#1_0" pos="123.84" speed="13.45" angle="146.40" x="6833.51" y="6020.38"/>
    </timestep>
    <timestep time="32.00">
        <vehicle id="1" eclass="Energy/default" CO2="0.00" CO="0.00" HC="0.00" NOx="0.00" PMx="0.00" fuel="0.00" electricity="6.57" noise="65.15" route="!1" type="1" waiting="0.00" lane="-31606#1_0" pos="90.21" speed="14.72" angle="109.59" x="6810.30" y="6044.21"/>
        <vehicle id="2" eclass="Energy/default" CO2="0.00" CO="0.00" HC="0.00" NOx="0.00" PMx="0.00" fuel="0.00" electricity="-1.53" noise="53.06" route="!2" type="1" waiting="0.00" lane="-31606#1_0" pos="212.20" speed="3.00" angle="165.35" x="6847.28" y="5934.23"/>
        <vehicle id="3" eclass="Energy/default" CO2="0.00" CO="0.00" HC="0.00" NOx="0.00" PMx="0.00" fuel="0.00" electricity="-3.64" noise="61.58" route="!3" type="1" waiting="0.00" lane="-31606#1_0" pos="136.29" speed="12.45" angle="159.83" x="6839.02" y="6009.31"/>
    </timestep>
    <timestep time="33.00">
        <vehicle id="1" eclass="Energy/default" CO2="0.00" CO="0.00" HC="0.00" NOx="0.00" PMx="0.00" fuel="0.00" electricity="2.81" noise="64.08" route="!1" type="1" waiting="0.00" lane="-31606#1_0" pos="104.55" speed="14.33" angle="134.02" x="6821.44" y="6035.33"/>